Program Version,EnergyPlus, Version 23.2.0-7636e6b3e9, YMD=2024.06.05 16:38
1,5,Environment Title[],Latitude[deg],Longitude[deg],Time Zone[],Elevation[m]
2,8,Day of Simulation[],Month[],Day of Month[],DST Indicator[1=yes 0=no],Hour[],StartMinute[],EndMinute[],DayType
3,5,Cumulative Day of Simulation[],Month[],Day of Month[],DST Indicator[1=yes 0=no],DayType  ! When Daily Report Variables Requested
4,2,Cumulative Days of Simulation[],Month[]  ! When Monthly Report Variables Requested
5,1,Cumulative Days of Simulation[] ! When Run Period Report Variables Requested
6,1,Calendar Year of Simulation[] ! When Annual Report Variables Requested
7,9,Environment,Site Outdoor Air Drybulb Temperature [C] !Monthly [Value,Min,Day,Hour,Minute,Max,Day,Hour,Minute]
8,1,BANIO,Zone Air Temperature [C] !Hourly
9,1,BANIO,Zone Air Relative Humidity [%] !Hourly
144,1,BANIO2,Zone Air Temperature [C] !Hourly
145,1,BANIO2,Zone Air Relative Humidity [%] !Hourly
208,1,CLOSET,Zone Air Temperature [C] !Hourly
209,1,CLOSET,Zone Air Relative Humidity [%] !Hourly
272,1,COCINA,Zone Air Temperature [C] !Hourly
273,1,COCINA,Zone Air Relative Humidity [%] !Hourly
336,1,ESCALERAS,Zone Air Temperature [C] !Hourly
337,1,ESCALERAS,Zone Air Relative Humidity [%] !Hourly
400,1,RECAMARA2,Zone Air Temperature [C] !Hourly
401,1,RECAMARA2,Zone Air Relative Humidity [%] !Hourly
464,1,RECAMARA3,Zone Air Temperature [C] !Hourly
465,1,RECAMARA3,Zone Air Relative Humidity [%] !Hourly
528,1,RPRINCIPAL,Zone Air Temperature [C] !Hourly
529,1,RPRINCIPAL,Zone Air Relative Humidity [%] !Hourly
592,1,SALACOMEDOR,Zone Air Temperature [C] !Hourly
593,1,SALACOMEDOR,Zone Air Relative Humidity [%] !Hourly
End of Data Dictionary
1,RUN PERIOD 1,  18.70, -99.17,  -6.00, 995.80
2,1, 1, 1, 0, 1, 0.00,60.00,Sunday
8,22.240202168690775
9,44.29668705984787
144,24.028838781322577
145,39.755674344098814
208,23.228665464118503
209,41.718860493689085
272,23.30422840847631
273,41.528960381795564
336,25.402380291280462
337,36.62374260447567
400,25.994027160520034
401,35.36142700053771
464,25.851871690297298
465,35.66071143270711
528,22.260310444658018
529,44.242938812196364
592,24.02661109429693
593,39.76191239162651
2,1, 1, 1, 0, 2, 0.00,60.00,Sunday
8,22.110822277270326
9,44.64734425499483
144,23.862390336620695
145,40.15551855259979
208,23.222307040905317
209,41.73489556741085
272,23.1490782639226
273,41.92030936094674
336,25.146400367207303
337,37.18597769493357
400,25.6250559492688
401,36.14343842592826
464,25.36560112852962
465,36.70545528274595
528,21.937033494653935
529,45.124084547580566
592,23.57760738735611
593,40.851444540974704
2,1, 1, 1, 0, 3, 0.00,60.00,Sunday
8,21.93562235782653
9,45.126939926260064
144,23.65723833480614
145,40.65433355663211
208,23.194556908299816
209,41.80495396214155
272,22.939145787597983
273,42.45628400321149
336,24.834232105223283
337,37.884609738656806
400,25.20657434056801
401,37.05343681330336
464,24.81881149495503
465,37.92057464700815
528,21.539205358007038
529,46.2345848072323
592,23.063568048785672
593,42.13906248477754
2,1, 1, 1, 0, 4, 0.00,60.00,Sunday
8,21.741975144426487
9,45.66395765264799
144,23.437494614272328
145,41.196565402717425
208,23.15170975848982
209,41.91338317012529
272,22.698947051533498
273,43.07913471158139
336,24.494687394417422
337,38.66147181042407
400,24.77654045035622
401,38.01602142155718
464,24.26345120373722
465,39.20210344271544
528,21.124818297939402
529,47.424877856158474
592,22.545476426748817
593,43.48416321736776
2,1, 1, 1, 0, 5, 0.00,60.00,Sunday
8,21.542858045368803
9,46.223357055272025
144,23.212056643165322
145,41.76103449428862
208,23.096071088220956
209,42.05465691275126
272,22.437866265538037
273,43.76757726922543
336,24.137659743966406
337,39.497468785969744
400,24.34717787052205
401,39.00456733479995
464,23.714758046742556
465,40.51509797737757
528,20.7108419597975
529,48.647182048818884
592,22.037088323956635
593,44.84967495939939
2,1, 1, 1, 0, 6, 0.00,60.00,Sunday
8,21.34921046911428
9,46.77508229129547
144,22.988715434388155
145,42.32915212640235
208,23.02837508961476
209,42.22726690101813
272,22.171931625490586
273,44.48180075767659
336,23.77960965636174
337,40.356631845268375
400,23.943119524429562
401,39.962057638917784
464,23.205605452219654
465,41.779081921823725
528,20.337403589493093
529,49.78139619569873
592,21.588706260692827
593,46.09542957392777
2,1, 1, 1, 0, 7, 0.00,60.00,Sunday
8,21.13737701665684
9,47.386921863333534
144,22.748544038118084
145,42.949597550575334
208,22.950533966018764
209,42.426732338098525
272,21.885640828599836
273,45.26521809444754
336,23.403654684542563
337,41.28128557983995
400,23.52723961078648
401,40.97483955029289
464,22.687777015525175
465,43.10954206294762
528,19.94742612967291
529,50.99689910208152
592,21.13333071653715
593,47.39978583805211
2,1, 1, 1, 0, 8, 0.00,60.00,Sunday
8,20.95873903150073
9,47.90975221665487
144,22.775614968652857
145,42.880192528553664
208,22.862903731127346
209,42.652550980420045
272,21.61490278225743
273,46.020268240006665
336,23.10360421475666
337,42.03569823061124
400,23.33440689536286
401,41.45341567245338
464,22.59371251903293
465,43.35702592291553
528,19.84923205508408
529,51.30818444837478
592,20.980966308268496
593,47.844956721428694
2,1, 1, 1, 0, 9, 0.00,60.00,Sunday
8,20.86140802369818
9,48.19730420519349
144,23.19190788104658
145,41.81269319370782
208,22.766677220561167
209,42.90208120048698
272,21.391527434759208
273,46.653847914357904
336,22.97892515365758
337,42.35385620860612
400,23.602304722379547
401,40.78987941395852
464,23.264180170115676
465,41.633533657853725
528,20.249776093987368
529,50.051982716995106
592,21.47457871889495
593,46.42033783357305
2,1, 1, 1, 0,10, 0.00,60.00,Sunday
8,20.833782625008606
9,48.27928948169793
144,23.530367865088127
145,40.96661442024337
208,22.66516658293915
209,43.16708827273005
272,21.211444884730806
273,47.17182386186037
336,22.937991918001828
337,42.45892000684835
400,24.0965735946796
401,39.59649843649976
464,24.08333959562283
465,39.630608581751645
528,20.699979335004365
529,48.680460338069736
592,22.27893243976858
593,44.198835286917415
2,1, 1, 1, 0,11, 0.00,60.00,Sunday
8,20.875567111198233
9,48.15536420973467
144,23.749112460943152
145,40.42998302543867
208,22.569028192165884
209,43.41975071732759
272,21.086278711775265
273,47.53559256501352
336,22.9744904122371
337,42.36524047587692
400,24.752989958886232
401,38.07130999230355
464,24.9449438882517
465,37.63897163480912
528,21.158676870978276
529,47.32644043394374
592,23.30320869448107
593,41.540137900847306
2,1, 1, 1, 0,12, 0.00,60.00,Sunday
8,20.97103743044922
9,47.87345466969533
144,23.824755898435757
145,40.246227078934915
208,22.495537385454124
209,43.61399674740295
272,21.03109075987089
273,47.69699119781445
336,23.103501197880007
337,42.03591824186979
400,25.47388874388177
401,36.47114958174412
464,25.738494917922694
465,35.90296565331921
528,21.550443881969795
529,46.20229201023282
592,24.415573615607745
593,38.8511955668253
2,1, 1, 1, 0,13, 0.00,60.00,Sunday
8,21.09601109085791
9,47.50731331493617
144,23.804856027876358
145,40.2944362957489
208,22.46012132735747
209,43.70795033727335
272,21.05220678904874
273,47.63517736493165
336,23.3047671649437
337,41.52792723771267
400,26.157639742759198
401,35.02281961085183
464,26.390343579174715
465,34.54469758368725
528,21.824707031145056
529,45.434056416797944
592,25.39910461507098
593,36.63555895810087
2,1, 1, 1, 0,14, 0.00,60.00,Sunday
8,21.284559695714012
9,46.96089062043749
144,23.89963967343714
145,40.06555117859835
208,22.462417643686393
209,43.701849683336555
272,21.173043576768503
273,47.28317813760191
336,23.592238030419548
337,40.814297910862486
400,26.78931795576986
401,33.74230963240963
464,27.047450681578464
465,33.234911775448296
528,22.20703477754005
529,44.38769121309551
592,26.254044493722663
593,34.8251602863676
2,1, 1, 1, 0,15, 0.00,60.00,Sunday
8,21.53905450539664
9,46.23454300412829
144,24.071337039708123
145,39.654485610030626
208,22.498707101840342
209,43.60560284980877
272,21.405454152253082
273,46.614405812091796
336,23.94854257517792
337,39.94879385149653
400,27.37626424176059
401,32.5994869087121
464,27.714004887820266
465,31.962457675111832
528,22.677573151343793
529,43.136250614754566
592,26.98992785687003
593,33.34705713364177
2,1, 1, 1, 0,16, 0.00,60.00,Sunday
8,21.778871504951123
9,45.56097473755434
144,24.230740935312514
145,39.27686844129119
208,22.581778257053173
209,43.38616519742484
272,21.70276034814857
273,45.773821794424684
336,24.335777263731234
337,39.031184564304645
400,27.828990696709866
401,31.74727388934349
464,28.219853784513003
465,31.03248693617728
528,23.054321624030482
529,42.161371610181995
592,27.46775757085626
593,32.42427187941971
2,1, 1, 1, 0,17, 0.00,60.00,Sunday
8,21.97280963739534
9,45.024801990152184
144,24.344345890947338
145,39.0103330581425
208,22.697278185936472
209,43.08309448654591
272,22.02550428303171
273,44.880965898882316
336,24.720541124677396
337,38.1429704704394
400,28.06028616172635
401,31.32156843680512
464,28.454138389121322
465,30.61223586563256
528,23.26804465683802
529,41.62000112586465
592,27.57051315832551
593,32.22963768135794
2,1, 1, 1, 0,18, 0.00,60.00,Sunday
8,22.172502509324783
9,44.47987390913932
144,24.44431845934014
145,38.77741083764354
208,22.82520447886169
209,42.75017233506426
272,22.396362635857475
273,43.87871695709516
336,25.059467994488188
337,37.37905917091111
400,28.03655822125268
401,31.364898468163847
464,28.42687449046704
465,30.66076764187604
528,23.411602545375217
529,41.26060599717564
592,27.309859932013854
593,32.72594190948211
2,1, 1, 1, 0,19, 0.00,60.00,Sunday
8,22.333010505813817
9,44.04726703602345
144,24.507857315684433
145,38.63019491266093
208,22.95309717827216
209,42.42020631690807
272,22.760167023816965
273,42.91985193766455
336,25.337652014711278
337,36.765074952114084
400,27.816020553327093
401,31.77108687499434
464,28.1879499211044
465,31.089948320696674
528,23.459331671327522
529,41.14191745506176
592,26.801607294299753
593,33.71736814583464
2,1, 1, 1, 0,20, 0.00,60.00,Sunday
8,22.45390781434575
9,43.72452594802413
144,24.53538493796671
145,38.56660884417523
208,23.066592469699533
209,42.129765099854474
272,23.08844574592331
273,42.074643901884535
336,25.5950929002113
337,36.207014344650695
400,27.575066963784337
401,32.221297622182725
464,27.91471675886457
465,31.58873163377564
528,23.43685696751777
529,41.19775970044804
592,26.335010057073486
593,34.656565026458885
2,1, 1, 1, 0,21, 0.00,60.00,Sunday
8,22.512802555296677
9,43.568247204185354
144,24.512572147651365
145,38.61930209800474
208,23.153716631254582
209,41.908319241796896
272,23.331096986481953
273,41.461779205535514
336,25.778230942739288
337,35.81568074608863
400,27.3275302313809
401,32.69152231918444
464,27.60101677151924
465,32.17280893259718
528,23.320916357141645
529,41.487243731885776
592,25.89022191694295
593,35.57994918131909
2,1, 1, 1, 0,22, 0.00,60.00,Sunday
8,22.505496265526972
9,43.58759539556306
144,24.441894353370298
145,38.7830467266233
208,23.21654742286805
209,41.749440167475996
272,23.46079515725181
273,41.138327284362
336,25.844166543896986
337,35.67594671856495
400,27.04262300831159
401,33.24231934550134
464,27.22480843146972
465,32.88932391929094
528,23.119318076706175
529,41.995895629220094
592,25.43455860546997
593,36.55471015977539
2,1, 1, 1, 0,23, 0.00,60.00,Sunday
8,22.44840520847463
9,43.73914177958252
144,24.332927789184946
145,39.037051373318015
208,23.257732673907967
209,41.64566457388917
272,23.486671017715167
273,41.074137530288084
336,25.78901276702247
337,35.792792416702994
400,26.715029783683423
401,33.8887523317482
464,26.785681945077005
465,33.748742874561835
528,22.85164397883533
529,42.68230062848198
592,24.95636992720622
593,37.61050250581723
2,1, 1, 1, 0,24, 0.00,60.00,Sunday
8,22.358828290278556
9,43.978045042543776
144,24.20245091339872
145,39.34357675529048
208,23.280299444184408
209,41.588926837198294
272,23.431754653641082
273,41.21045852777675
336,25.63685327248571
337,36.11727019285613
400,26.363597067228046
401,34.59770824235569
464,26.31757083735526
465,34.69227973615992
528,22.54894962421169
529,43.47326629809668
592,24.472792280662798
593,38.71259144352424
2,2, 1, 2, 0, 1, 0.00,60.00,Monday
8,22.258881118271876
9,44.24637099668265
144,24.06730426362785
145,39.66398439321943
208,23.28733163084902
209,41.57126475939288
272,23.32712155062934
273,41.471610450871175
336,25.43328712997774
337,36.55657077494349
400,26.023182814986793
401,35.30058502844733
464,25.86653689920081
465,35.62990764168328
528,22.257390444096995
529,44.2509670377464
592,24.033938582020316
593,39.7446305749017
2,2, 1, 2, 0, 2, 0.00,60.00,Monday
8,22.13124568979016
9,44.59174161333224
144,23.906064172979004
145,40.050140671691736
208,23.279547432577562
209,41.59081710163733
272,23.171951144846997
273,41.8623364717503
336,25.177041105602417
337,37.1181405278623
400,25.657355923629268
401,36.07405649061642
464,25.386999053613277
465,36.65846467456268
528,21.93640552954942
529,45.12548414457776
592,23.5859197420354
593,40.83059812424381
2,2, 1, 2, 0, 3, 0.00,60.00,Monday
8,21.96467045239738
9,45.047071068515834
144,23.70835634804217
145,40.52943819961327
208,23.25007866863867
209,41.664929710465834
272,22.96769561675981
273,42.38298880371544
336,24.869849483903618
337,37.80421533212226
400,25.250308445355813
401,36.957258329223826
464,24.857239934395228
465,37.833905105170395
528,21.559978551822358
529,46.17602813028336
592,23.09432078994457
593,42.06097606332907
2,2, 1, 2, 0, 4, 0.00,60.00,Monday
8,21.767365046951824
9,45.593109383324666
144,23.482214606886032
145,41.085548201794104
208,23.20477582228685
209,41.7791512726416
272,22.722074559482092
273,43.0187109734361
336,24.523934142808134
337,38.5938474666008
400,24.812345248274223
401,37.934734354002984
464,24.292015207791682
465,39.13485980966732
528,21.139631902214404
529,47.38151925562814
592,22.568076151076685
593,43.42425538205402
2,2, 1, 2, 0, 5, 0.00,60.00,Monday
8,21.55526930209955
9,46.18839959937534
144,23.24073079712451
145,41.68888402646081
208,23.146233846882083
209,41.92727522396578
272,22.450877951322187
273,43.73309676384372
336,24.156614390760648
337,39.45271874331678
400,24.363687832055223
401,38.96636241355329
464,23.718583629741264
465,40.50638216554457
528,20.703660325648134
529,48.66933202887288
592,22.03708924919539
593,44.850392526223885
2,2, 1, 2, 0, 6, 0.00,60.00,Monday
8,21.351019376712173
9,46.76978919006109
144,23.00970497451408
145,42.275289127341445
208,23.076432153158
209,42.10465874689498
272,22.174863920297188
273,44.4737663563369
336,23.788152129038366
337,40.335791513914224
400,23.944559654145934
401,39.95831534454368
464,23.188895624665673
465,41.820826009893665
528,20.303921595849562
529,49.884061235711606
592,21.55844817226956
593,46.180373824348955
2,2, 1, 2, 0, 7, 0.00,60.00,Monday
8,21.15667477617659
9,47.33081950393906
144,22.786359985487014
145,42.85123945156844
208,22.99761299200686
209,42.305975013350675
272,21.900989274899302
273,45.22283552856688
336,23.425055777988273
337,41.22802512370361
400,23.55900045193843
401,40.89648808885934
464,22.709353562977167
465,43.053179599279396
528,19.95144071331532
529,50.98426572539938
592,21.148036194214807
593,47.35702038033519
2,2, 1, 2, 0, 8, 0.00,60.00,Monday
8,20.968253861048627
9,47.8817706346774
144,22.77269266346445
145,42.88726876883451
208,22.909091601738506
209,42.533366046166655
272,21.623057124113785
273,45.997365015595996
336,23.111020628795405
337,42.01692615283249
400,23.33303874514952
401,41.45673182744134
464,22.55530921888908
465,43.45726779921312
528,19.805662368459213
529,51.44650773927926
592,20.951787097275858
593,47.93045807095697
2,2, 1, 2, 0, 9, 0.00,60.00,Monday
8,20.84953037010807
9,48.232574097677
144,23.12864280278369
145,41.97273618843609
208,22.810995554495914
209,42.78696145234605
272,21.38359684889519
273,46.676592318486506
336,22.959627224364024
337,42.40340042395258
400,23.539853399224075
401,40.94344272516509
464,23.123872944248927
465,41.98739516302988
528,20.12799210977535
529,50.43000144823909
592,21.36132584613259
593,46.74288044834435
2,2, 1, 2, 0,10, 0.00,60.00,Monday
8,20.772740232632646
9,48.46110464735892
144,23.44137482726457
145,41.186951675869516
208,22.706111532222888
209,43.05998242141505
272,21.170032837579225
273,47.292033777585374
336,22.894331647553106
337,42.571359160057426
400,23.980000545745156
401,39.8741560110551
464,23.880867859628495
465,40.114727346912794
528,20.496750313526316
529,49.293481400283746
592,22.081153456529705
593,44.73298370251202
2,2, 1, 2, 0,11, 0.00,60.00,Monday
8,20.74740372867768
9,48.53673969609442
144,23.634879222050746
145,40.70898208926153
208,22.60543680560487
209,43.32386903757742
272,20.9985447355381
273,47.792612399418566
336,22.90712235372891
337,42.53840419015622
400,24.58671952539944
401,38.45136509694303
464,24.68619349150453
465,38.22459450317431
528,20.827840493211657
529,48.29797994078882
592,23.002919248102373
593,42.299778836440204
2,2, 1, 2, 0,12, 0.00,60.00,Monday
8,20.7977258045359
9,48.38659366120336
144,23.65479791093919
145,40.660085356425064
208,22.52718770416465
209,43.53021138905151
272,20.90886735813817
273,48.05678885969115
336,22.982396184742118
337,42.344978653428115
400,25.212684218906784
401,37.04093250080619
464,25.356013110237484
465,36.72625069548085
528,21.10356908630982
529,47.485378921519704
592,23.950132129186553
593,39.94885096103393
2,2, 1, 2, 0,13, 0.00,60.00,Monday
8,20.889613534388783
9,48.11384638413775
144,23.601002610487868
145,40.792031267290305
208,22.48647095238721
209,43.63801233503898
272,20.899107066106648
273,48.0856348542213
336,23.12827108380679
337,41.97310364534534
400,25.796617501665708
401,35.77872073786093
464,25.889644753170945
465,35.581877903380494
528,21.31796286653951
529,46.86496109142916
592,24.794246227775194
593,37.97899303309166
2,2, 1, 2, 0,14, 0.00,60.00,Monday
8,21.051179672779217
9,47.638444770856644
144,23.68801180243176
145,40.57892879113492
208,22.482770713564392
209,43.647824003810264
272,20.988551595325962
273,47.82201602440722
336,23.39525217799582
337,41.30197985315258
400,26.441702535447003
401,34.44045300111557
464,26.554559662540257
465,34.21256899865424
528,21.667377672070813
529,45.87369293004901
592,25.669472479871942
593,36.05166345828793
2,2, 1, 2, 0,15, 0.00,60.00,Monday
8,21.271988880361324
9,46.997188385800804
144,23.836771658225903
145,40.21730877896547
208,22.506770863995783
209,43.58422933425675
272,21.177160617140895
273,47.27142367952772
336,23.7267029941286
337,40.485189269579024
400,27.043330095333886
401,33.24199576989959
464,27.225359848631367
465,32.88936293268305
528,22.104919741031864
529,44.664617514085705
592,26.434867228904412
593,34.454292589041884
2,2, 1, 2, 0,16, 0.00,60.00,Monday
8,21.500119961086682
9,46.34457042516317
144,23.98035470989535
145,39.871618836043446
208,22.571562312687806
209,43.413061883623634
272,21.432066815638972
273,46.53838389763596
336,24.07690394349854
337,39.64178410006653
400,27.4921622823561
401,32.37824010240359
464,27.7281405843747
465,31.93485620335049
528,22.484493060269685
529,43.64397543246725
592,26.94044781166809
593,33.442494953338866
2,2, 1, 2, 0,17, 0.00,60.00,Monday
8,21.707911843229123
9,45.75909141353006
144,24.09362291375906
145,39.60129927159698
208,22.666755603202343
209,43.162931561861505
272,21.725745510001925
273,45.70967939995344
336,24.426945707107098
337,38.818484126944696
400,27.728902828076503
401,31.932793582746356
464,27.985881517248036
465,31.457659979831845
528,22.752148948965026
529,42.94017258674584
592,27.099815551245232
593,33.13048801941258
2,2, 1, 2, 0,18, 0.00,60.00,Monday
8,21.890216848311027
9,45.252133476734514
144,24.175615259213647
145,39.40687987884744
208,22.77592584125428
209,42.87804659556707
272,22.052169389050192
273,44.807848216788905
336,24.72662975315289
337,38.12860610687202
400,27.69497709288238
401,31.996165162172158
464,27.95549302698011
465,31.51346538666346
528,22.899636848971465
529,42.55770947319616
592,26.86151739230223
593,33.59833412203071
2,2, 1, 2, 0,19, 0.00,60.00,Monday
8,22.025932297483383
9,44.878894342195174
144,24.220642721891
145,39.300581342653444
208,22.88618428016861
209,42.59244984286695
272,22.378467004867773
273,43.926259038125984
336,24.968537367187437
337,37.581996415547465
400,27.456870719612585
401,32.444950491605795
464,27.703276871929564
465,31.980971329361946
528,22.93358929989272
529,42.47024117224931
592,26.350859045884405
593,34.624605265670354
2,2, 1, 2, 0,20, 0.00,60.00,Monday
8,22.127704117987268
9,44.60124618850218
144,24.231103285857667
145,39.275930812708914
208,22.983816107026158
209,42.34132730993718
272,22.681139560462253
273,43.125735249992864
336,25.204657437994882
337,37.05697884907397
400,27.20618194707525
401,32.9247358507437
464,27.424886304482936
465,32.50574938087048
528,22.901203961617266
529,42.55367980791911
592,25.8827538180803
593,35.59564217071133
2,2, 1, 2, 0,21, 0.00,60.00,Monday
8,22.14420637492707
9,44.55639589548283
144,24.169067862617734
145,39.422425301645355
208,23.057424537225245
209,42.153093450262695
272,22.894054379294968
273,42.57221506556326
336,25.366254925995246
337,36.702241334614534
400,26.91733377014424
401,33.487994311285284
464,27.065442336849966
465,33.198424272780706
528,22.724854443930894
529,43.01155933868804
592,25.387079141799237
593,36.65867649557534
2,2, 1, 2, 0,22, 0.00,60.00,Monday
8,22.09055302397402
9,44.70232722787002
144,24.053532227682666
145,39.696737595192005
208,23.107997395796115
209,42.02431575913628
272,22.993836217523313
273,42.31562694045949
336,25.40600100950076
337,36.615581018751826
400,26.567447162018606
401,34.18440939209356
464,26.611254377646173
465,34.09675072582885
528,22.437260572127258
529,43.769258584294114
592,24.838200653759344
593,37.87662459170894
2,2, 1, 2, 0,23, 0.00,60.00,Monday
8,22.017949523814604
9,44.90069530993768
144,23.929094247049495
145,39.99465336159175
208,23.13712522796726
209,41.95034630362172
272,23.00992944451899
273,42.274404283652935
336,25.339608084751074
337,36.76046845647101
400,26.216467331553222
401,34.89964243469805
464,26.154347531187653
465,35.028476913321306
528,22.150521934383335
529,44.539946669886604
592,24.326426224317498
593,39.05383492010615
2,2, 1, 2, 0,24, 0.00,60.00,Monday
8,21.923953205905775
9,45.158933554614556
144,23.791737533037665
145,40.3263617646081
208,23.147294747417988
209,41.92455616628801
272,22.951533260070118
273,42.42416614032433
336,25.18473374363928
337,37.10086548357331
400,25.861595503888108
401,35.639787921187896
464,25.690963435646253
465,36.00249707281976
528,21.8549882151181
529,45.34998388226282
592,23.84399947596898
593,40.20096339011988
2,3, 1, 3, 0, 1, 0.00,60.00,Tuesday
8,21.810354963379833
9,45.47333655601947
144,23.640000280795164
145,40.696500850628475
208,23.14136007431013
209,41.939604680325765
272,22.83338532421509
273,42.72902671359361
336,24.96790591879653
337,37.583454164117846
400,25.507178744116676
401,36.39697822997197
464,25.226456667853327
465,37.01008454835842
528,21.553772081644293
529,46.19313677789205
592,23.394154358536966
593,41.305520173346885
2,3, 1, 3, 0, 2, 0.00,60.00,Tuesday
8,21.66100031199434
9,45.8904044883154
144,23.457956934859038
145,41.14557765764668
208,23.1142799707161
209,42.00835102225849
272,22.656108613590575
273,43.19103551069194
336,24.690426494025406
337,38.21131620002497
400,25.123560331421448
401,37.236978544558106
464,24.72656051797036
465,38.129948347785245
528,21.206958144791532
529,47.18563664294951
592,22.924782492479267
593,42.49447060036001
2,3, 1, 3, 0, 3, 0.00,60.00,Tuesday
8,21.49165199136426
9,46.36851207846116
144,23.25747358191928
145,41.64661441150272
208,23.065689270582897
209,42.132016864959205
272,22.436867465821802
273,43.77020000441073
336,24.368493903219584
337,38.95458445226843
400,24.72453468713988
401,38.13398654191443
464,24.211095773239908
465,39.32484482996809
528,20.8425345252981
529,48.254448902698186
592,22.453274248372953
593,43.727795569874694
2,3, 1, 3, 0, 4, 0.00,60.00,Tuesday
8,21.28215090818659
9,46.96792738166612
144,23.014637922377506
145,42.26290037158366
208,23.00170653712407
209,42.29547961380198
272,22.168250379649646
273,44.49184058202601
336,24.001518315301624
337,39.82189951740494
400,24.276829508859123
401,39.16999193204187
464,23.638719308511522
465,40.702143258349764
528,20.41653450624239
529,49.539308200039635
592,21.927719392145264
593,45.15119367753267
2,3, 1, 3, 0, 5, 0.00,60.00,Tuesday
8,21.041711028367462
9,47.66629562813097
144,22.74644117415882
145,42.9551598790817
208,22.923865440478433
209,42.495310138608225
272,21.866105068993264
273,45.31929972873099
336,23.602160926892097
337,40.790221628484346
400,23.797730103027977
401,40.31305804906595
464,23.030914909576754
465,42.22302366899463
528,19.943941035177534
529,51.00846765181121
592,21.358515332605055
593,46.75023484836968
2,3, 1, 3, 0, 6, 0.00,60.00,Tuesday
8,20.820850092170016
9,48.318106928435185
144,22.499035069454823
145,43.60512245113282
208,22.835466927216913
209,42.723529900897994
272,21.57223595448662
273,46.14074861556147
336,23.214787512298003
337,41.75487356512488
400,23.36758786817823
401,41.3714465720546
464,22.492553044139882
465,43.62374560772397
528,19.535314343301852
529,52.31828355282317
592,20.872879007524443
593,48.16488832102379
2,3, 1, 3, 0, 7, 0.00,60.00,Tuesday
8,20.602642064373125
9,48.97207830805891
144,22.251963639877157
145,44.265409940223435
208,22.736594114740765
209,42.980431664879355
272,21.273450376640753
273,46.9932774264881
336,22.82707558079055
337,42.74632676632203
400,22.954802731144515
401,42.41697493435357
464,21.988210513020892
465,44.98414317198095
528,19.15815525771652
529,53.56139962681442
592,20.4365213265233
593,49.4777951859196
2,3, 1, 3, 0, 8, 0.00,60.00,Tuesday
8,20.387564961161196
9,49.62623770693147
144,22.289118715590842
145,44.16685633105566
208,22.62672047550767
209,43.26795882356448
272,20.967803799848067
273,47.88361211294113
336,22.50356160483084
337,43.59299018096547
400,22.748606812427187
401,42.94924475608958
464,21.908402339314417
465,45.20499716440838
528,19.046341610565538
529,53.936063190971424
592,20.26897508600666
593,49.991760193660944
2,3, 1, 3, 0, 9, 0.00,60.00,Tuesday
8,20.22857204725609
9,50.11604430062831
144,22.733536912666086
145,42.989394677192344
208,22.50635046855764
209,43.585441328424174
272,20.690106405755337
273,48.70890082982871
336,22.35502201890031
337,43.98825714605536
400,23.013947585782443
401,42.2651239199165
464,22.623064126510425
465,43.28184423182865
528,19.421325880808624
529,52.69062134012942
592,20.742794270558324
593,48.55387813053471
2,3, 1, 3, 0,10, 0.00,60.00,Tuesday
8,20.133351881918284
9,50.41201598096342
144,23.033572546082695
145,42.214302853122106
208,22.379160027911073
209,43.92375440209096
272,20.45096800928621
273,49.432446054424155
336,22.273596793582595
337,44.20668082767194
400,23.460877155214423
401,41.13990453230716
464,23.39260149927308
465,41.3119843801883
528,19.790061339309478
529,51.49686265244785
592,21.47837540257886
593,46.4114886823475
2,3, 1, 3, 0,11, 0.00,60.00,Tuesday
8,20.1239980828119
9,50.44119161497349
144,23.208173846421946
145,41.770684103164825
208,22.25785415950223
209,44.24913923451834
272,20.27616353647942
273,49.96880489111896
336,22.271150600969232
337,44.213264679618554
400,24.073078025793695
401,39.653453347329226
464,24.198933248874706
465,39.35646642643092
528,20.161763957072136
529,50.32500157306121
592,22.431992432145123
593,43.79142718238989
2,3, 1, 3, 0,12, 0.00,60.00,Tuesday
8,20.188338557663087
9,50.24081356422058
144,23.247010660590693
145,41.67266439039873
208,22.16164491749493
209,44.509110856354006
272,20.18311366823203
273,50.257047400608265
336,22.360162707172787
337,43.97453180278284
400,24.77200511200749
401,38.02780710055149
464,24.96317836021434
465,37.596362618401024
528,20.5122335206153
529,49.24604039519391
592,23.499935315792627
593,41.04832766584593
2,3, 1, 3, 0,13, 0.00,60.00,Tuesday
8,20.285014368067486
9,49.94147646478526
144,23.191114206710484
145,41.8136521113637
208,22.105576913602466
209,44.66139787117864
272,20.16564725892605
273,50.31135043659322
336,22.532340405602593
337,43.51692021990061
400,25.448344972106906
401,36.52625079500219
464,25.595411928052112
465,36.20832971478284
528,20.75453070264174
529,48.515971038685194
592,24.478896247586434
593,38.70276031084773
2,3, 1, 3, 0,14, 0.00,60.00,Tuesday
8,20.45135325336101
9,49.43125109427866
144,23.264798283661545
145,41.62803235546131
208,22.092829838885624
209,44.69610223679228
272,20.255669685165895
273,50.03221102267548
336,22.8110745067976
337,42.78747734616409
400,26.12543375436121
401,35.08967448208211
464,26.286763945969444
465,34.75735471726984
528,21.114612141139045
529,47.454635805402496
592,25.397318283114274
593,36.63925120723032
2,3, 1, 3, 0,15, 0.00,60.00,Tuesday
8,20.680913288215482
9,48.73643823099917
144,23.41523631353992
145,41.25165968346203
208,22.109465887901667
209,44.65081364129313
272,20.449357663015096
273,49.43743430682212
336,23.154071697236592
337,41.90821656925849
400,26.748298278102585
401,33.823414828695405
464,26.980552220627274
465,33.36526530119501
528,21.574389590078585
529,46.13553086397178
592,26.191306325752013
593,34.95325902069157
2,3, 1, 3, 0,16, 0.00,60.00,Tuesday
8,20.909103270304517
9,48.05640089168401
144,23.55273763313618
145,40.910937841062044
208,22.166765709332044
209,44.495227621856166
272,20.714049436808523
273,48.63721377475622
336,23.498304295509488
337,41.04610931579743
400,27.17491875148635
401,32.98529412677539
464,27.458565984680316
465,32.441858069978665
528,21.950887279932626
529,45.08534977381817
592,26.655659566940503
593,34.00704267212109
2,3, 1, 3, 0,17, 0.00,60.00,Tuesday
8,21.117568502390213
9,47.44464019425371
144,23.660480468614363
145,40.64620513778698
208,22.260417395626433
209,44.242226804861765
272,21.02245159265867
273,47.72324683379937
336,23.84430722176909
337,40.19973842098218
400,27.36051995277839
401,32.62808929306247
464,27.663314226031503
465,32.055331037503365
528,22.211818857136034
529,44.37363826327746
592,26.73736957517318
593,33.84358854112609